<?xml version="1.0"?>
<VTKFile type="ImageData" version="2.2" byte_order="LittleEndian" header_type="UInt64" compressor="vtkZLibDataCompressor">
  <ImageData WholeExtent="0 8 0 5 0 6" Origin="-3048277.5 -4523143.5 3505944" Spacing="246778.796875 400492.25 179495" Direction="1 0 0 0 1 0 0 0 1">
    <FieldData>
      <DataArray type="Float64" Name="TimeValue" NumberOfTuples="1" format="ascii" RangeMin="0" RangeMax="0">
        0
      </DataArray>
    </FieldData>
  <Piece Extent="0 8 0 5 0 6">
    <PointData>
      <DataArray type="Float32" Name="NA_crust" format="ascii" RangeMin="-9.345381508686312e-18" RangeMax="0.7096301913261414">
        0 0 0 0 0 0
        0 0 0 0 0 0
        0 0 0 0 0 0
        0 0 0 0 0 0
        0 0 0 0 0 0
        0 0 0 0 0 0
        0 0 0 0 0 0
        0 0 0 0 0 0
        0 0 0 0 0 0
        0 0 0 0 0 0
        0 0 0 0 0 0
        0 0 0 0 0 0
        0 0 1.0045064870168026e-20 1.4847630270211156e-20 -7.261503255189333e-22 0
        0 0 0 0 2.940184187447995e-25 3.448360691197545e-24
        0 0 0 0 0 0
        0 0 0 0 0 0
        0 0 0 0 0 0
        0 0 0 0 0 0
        0 0 0 0 0 0
        0 0 0 0 0 0
        3.82410379321181e-19 -1.4942593835706512e-19 0 0 0 0
        0 1.2586364852529097e-20 7.98635578966103e-20 1.8836369500950015e-19 -1.783963948104349e-20 8.112833159348809e-21
        0 0 0 0 1.0606880158916975e-23 1.0280942712174464e-22
        -9.454112984952079e-22 0 0 0 0 0
        0 0 0 0 0 0
        0 0 0 0 0 0
        0 0 0 0 0 0
        0 0 0 0 0 0
        0 0 0 0 0 1.5757640122263693e-17
        -2.124889061281585e-18 8.081679695710729e-19 0 0 0 0
        4.440691653509653e-21 1.5134749184472287e-19 1.022754026706237e-18 9.257045443505703e-19 7.32605240334204e-20 2.4969443607174752e-20
        0 0 0 0 1.429318614824769e-23 -1.3400222929679263e-21
        -2.8572950932598314e-21 -8.597995376673734e-24 0 0 0 0
        0 0 0 0 0 0
        0 0 0 0 0 0
        0 0 0 0 0 0
        0 0 0 0 0 0
        0 0 0 0 0 0
        0.7096301913261414 8.995614969549288e-17 0 0 0 0
        0 1.2129692750440577e-18 -9.345381508686312e-18 2.0928751036242513e-18 2.7311022284663315e-19 2.663569716917339e-20
        0 0 0 0 -1.064367988905681e-21 -1.0946781200988366e-21
        0 0 0 0 0 0
        0 0 0 0 0 0
        0 0 0 0 0 0
        0 0 0 0 0 0
        0 0 0 0 0 0
        0 0 0 0 0 0
        0 0 0 0 0 0
        0 0 0.321274995803833 -2.3815516248282136e-18 2.6599727737224406e-20 0
        0 0 0 0 -6.108609674152985e-22 0
        0 0 0 0 0 0
        0 0 0 0 0 0
        0 0 0 0 0 0
        0 0 0 0 0 0
        0 0 0 0 0 0
        0 0 0 0 0 0
        0 0 0 0 0 0
        0 0 0 0 0 0
        0 0 0 0 0 0
        0 0 0 0 0 0
        0 0 0 0 0 0
        0 0 0 0 0 0
        0 0 0 0 0 0
      </DataArray>
      <DataArray type="Float32" Name="PC_crust" format="ascii" RangeMin="0" RangeMax="0.2804532051086426">
        0 0 0 0 0 0
        0 0 0 0 0 0
        0 0 0 0 0 0
        0 0 0 0 0 0
        0 0 0 0 0 0
        0 0 0 0 0 0
        0 0 0 0 0 0
        0 0 0 0 0 0
        0 0 0 0 0 0
        0 0 0 0 0 0
        0 0 0 0 0 0
        0 0 0 0 0 0
        0 0 0 0 0 0
        0 0 0 0 0 0
        0 0 0 0 0 0
        0 0 0 0 0 0
        0 0 0 0 0 0
        0 0 0 0 0 0
        0 0 0 0 0 0
        0 0 0 0 0 0
        0 0 0 0 0 0
        0 0 0 0 0 0
        0 0 0 0 0 0
        0 0 0 0 0 0
        0 0 0 0 0 0
        0 0 0 0 0 0
        0 0 0 0 0 0
        0 0 0 0 0 0
        0 0 0 0 0 0
        0 0 0 0 0 0
        0.0505879707634449 0 0 0 0 0
        0 0 0 0 0 0
        0 0 0 0 0 0
        0 0 0 0 0 0
        0 0 0 0 0 0
        0 0 0 0 0 0
        0 0 0 0 0 0
        0 0 0 0 0 0
        0 0 0 0 0 0
        0 0.2804532051086426 0 0 0 0
        0 0 0 0 0 0
        0 0 0 0 0 0
        0 0 0 0 0 0
        0 0 0 0 0 0
        0 0 0 0 0 0
        0 0 0 0 0 0
        0 0 0 0 0 0
        0 0 0 0 0 0
        0 0 0.09753213077783585 0 0 0
        0 0 0 0 0 0
        0 0 0 0 0 0
        0 0 0 0 0 0
        0 0 0 0 0 0
        0 0 0 0 0 0
        0 0 0 0 0 0
        0 0 0 0 0 0
        0 0 0 0 0 0
        0 0 0 0 0 0
        0 0 0 0 0 0
        0 0 0 0 0 0
        0 0 0 0 0 0
        0 0 0 0 0 0
        0 0 0 0 0 0
      </DataArray>
      <DataArray type="Float32" Name="T" format="ascii" RangeMin="0" RangeMax="1987.9771728515625">
        0 0 0 0 0 0
        0 0 0 0 0 0
        0 0 0 0 0 0
        0 0 0 0 0 0
        0 0 0 0 0 0
        0 0 0 0 0 0
        0 0 0 0 0 0
        0 0 0 0 0 0
        0 0 0 0 0 0
        0 0 0 0 0 0
        0 0 0 0 0 0
        0 0 0 0 0 0
        0 0 1857.4896240234375 1911.32373046875 1961.8360595703125 0
        0 0 0 0 1924.954833984375 1987.9771728515625
        0 0 0 0 0 0
        0 0 0 0 0 0
        0 0 0 0 0 0
        0 0 0 0 0 0
        0 0 0 0 0 0
        0 0 0 0 0 0
        1721.7216796875 1764.2635498046875 0 0 0 0
        0 1745.9781494140625 1799.676025390625 1850.7886962890625 1898.6590576171875 1942.78564453125
        0 0 0 0 1863.8060302734375 1923.5035400390625
        1980.4189453125 0 0 0 0 0
        0 0 0 0 0 0
        0 0 0 0 0 0
        0 0 0 0 0 0
        0 0 0 0 0 0
        0 0 0 0 0 946.5442504882812
        1635.113525390625 1708.4637451171875 0 0 0 0
        1305.1627197265625 1691.1561279296875 1742.1563720703125 1790.6422119140625 1835.995361328125 1877.7469482421875
        0 0 0 0 1802.9329833984375 1859.5360107421875
        1913.4068603515625 1964.1358642578125 0 0 0 0
        0 0 0 0 0 0
        0 0 0 0 0 0
        0 0 0 0 0 0
        0 0 0 0 0 0
        0 0 0 0 0 0
        670.19677734375 1593.598388671875 0 0 0 0
        0 1270.203857421875 1668.3125 1719.14453125 1773.9345703125 1813.339111328125
        0 0 0 0 1742.79248046875 1796.3311767578125
        0 0 0 0 0 0
        0 0 0 0 0 0
        0 0 0 0 0 0
        0 0 0 0 0 0
        0 0 0 0 0 0
        0 0 0 0 0 0
        0 0 0 0 0 0
        0 0 1032.8052978515625 1672.24365234375 1712.76806640625 0
        0 0 0 0 1683.282470703125 0
        0 0 0 0 0 0
        0 0 0 0 0 0
        0 0 0 0 0 0
        0 0 0 0 0 0
        0 0 0 0 0 0
        0 0 0 0 0 0
        0 0 0 0 0 0
        0 0 0 0 0 0
        0 0 0 0 0 0
        0 0 0 0 0 0
        0 0 0 0 0 0
        0 0 0 0 0 0
        0 0 0 0 0 0
      </DataArray>
      <DataArray type="Float32" Name="density" format="ascii" RangeMin="0" RangeMax="3688.289306640625">
        0 0 0 0 0 0
        0 0 0 0 0 0
        0 0 0 0 0 0
        0 0 0 0 0 0
        0 0 0 0 0 0
        0 0 0 0 0 0
        0 0 0 0 0 0
        0 0 0 0 0 0
        0 0 0 0 0 0
        0 0 0 0 0 0
        0 0 0 0 0 0
        0 0 0 0 0 0
        0 0 3255.630126953125 3453.130859375 3688.288330078125 0
        0 0 0 0 3453.130859375 3688.289306640625
        0 0 0 0 0 0
        0 0 0 0 0 0
        0 0 0 0 0 0
        0 0 0 0 0 0
        0 0 0 0 0 0
        0 0 0 0 0 0
        3152.874267578125 3192.498046875 0 0 0 0
        0 3152.874267578125 3192.498046875 3255.630126953125 3453.130859375 3688.289306640625
        0 0 0 0 3255.630126953125 3453.130859375
        3688.289306640625 0 0 0 0 0
        0 0 0 0 0 0
        0 0 0 0 0 0
        0 0 0 0 0 0
        0 0 0 0 0 0
        0 0 0 0 0 3228.312255859375
        3159.10986328125 3152.874267578125 0 0 0 0
        3150.760986328125 3157.525390625 3152.874267578125 3192.498046875 3255.630126953125 3453.130859375
        0 0 0 0 3192.498046875 3255.630126953125
        3453.130859375 3688.289306640625 0 0 0 0
        0 0 0 0 0 0
        0 0 0 0 0 0
        0 0 0 0 0 0
        0 0 0 0 0 0
        0 0 0 0 0 0
        3079.802978515625 3160.696044921875 0 0 0 0
        0 3076.84814453125 3159.10986328125 3160.737060546875 3192.498046875 3192.498046875
        0 0 0 0 3152.874267578125 3192.498046875
        0 0 0 0 0 0
        0 0 0 0 0 0
        0 0 0 0 0 0
        0 0 0 0 0 0
        0 0 0 0 0 0
        0 0 0 0 0 0
        0 0 0 0 0 0
        0 0 3151.534912109375 3157.525390625 3152.874267578125 0
        0 0 0 0 3157.525390625 0
        0 0 0 0 0 0
        0 0 0 0 0 0
        0 0 0 0 0 0
        0 0 0 0 0 0
        0 0 0 0 0 0
        0 0 0 0 0 0
        0 0 0 0 0 0
        0 0 0 0 0 0
        0 0 0 0 0 0
        0 0 0 0 0 0
        0 0 0 0 0 0
        0 0 0 0 0 0
        0 0 0 0 0 0
      </DataArray>
      <DataArray type="Float32" Name="depth" format="ascii" RangeMin="0" RangeMax="790287.125">
        0 0 0 0 0 0
        0 0 0 0 0 0
        0 0 0 0 0 0
        0 0 0 0 0 0
        0 0 0 0 0 0
        0 0 0 0 0 0
        0 0 0 0 0 0
        0 0 0 0 0 0
        0 0 0 0 0 0
        0 0 0 0 0 0
        0 0 0 0 0 0
        0 0 0 0 0 0
        0 0 542924.625 646870.0625 741786.875 0
        0 0 0 0 672966.625 790287.125
        0 0 0 0 0 0
        0 0 0 0 0 0
        0 0 0 0 0 0
        0 0 0 0 0 0
        0 0 0 0 0 0
        0 0 0 0 0 0
        266533.59375 355615.3125 0 0 0 0
        0 317558.125 427804.9375 529686.75 622623.6875 706442.375
        0 0 0 0 555403 670188.125
        776264.0625 0 0 0 0 0
        0 0 0 0 0 0
        0 0 0 0 0 0
        0 0 0 0 0 0
        0 0 0 0 0 0
        0 0 0 0 0 55795.53125
        151368.375 238644.90625 0 0 0 0
        85491.9609375 201397.84375 309518.84375 409389.25 500461.78125 582587.8125
        0 0 0 0 434444.5 546967.4375
        650858.1875 746053.875 0 0 0 0
        0 0 0 0 0 0
        0 0 0 0 0 0
        0 0 0 0 0 0
        0 0 0 0 0 0
        0 0 0 0 0 0
        33185.12109375 118976.46875 0 0 0 0
        0 82233.9140625 188285.078125 286160.46875 375330.125 455657.65625
        0 0 0 0 310856.8125 420986.4375
        0 0 0 0 0 0
        0 0 0 0 0 0
        0 0 0 0 0 0
        0 0 0 0 0 0
        0 0 0 0 0 0
        0 0 0 0 0 0
        0 0 0 0 0 0
        0 0 64420.6953125 160345.75 247699.140625 0
        0 0 0 0 184306.9375 0
        0 0 0 0 0 0
        0 0 0 0 0 0
        0 0 0 0 0 0
        0 0 0 0 0 0
        0 0 0 0 0 0
        0 0 0 0 0 0
        0 0 0 0 0 0
        0 0 0 0 0 0
        0 0 0 0 0 0
        0 0 0 0 0 0
        0 0 0 0 0 0
        0 0 0 0 0 0
        0 0 0 0 0 0
      </DataArray>
      <DataArray type="Float32" Name="p" format="ascii" RangeMin="0" RangeMax="25414658048">
        0 0 0 0 0 0
        0 0 0 0 0 0
        0 0 0 0 0 0
        0 0 0 0 0 0
        0 0 0 0 0 0
        0 0 0 0 0 0
        0 0 0 0 0 0
        0 0 0 0 0 0
        0 0 0 0 0 0
        0 0 0 0 0 0
        0 0 0 0 0 0
        0 0 0 0 0 0
        0 0 16935776256 20336472064 23662796800 0
        0 0 0 0 21186172928 25414658048
        0 0 0 0 0 0
        0 0 0 0 0 0
        0 0 0 0 0 0
        0 0 0 0 0 0
        0 0 0 0 0 0
        0 0 0 0 0 0
        8273437696 11032270848 0 0 0 0
        0 9851913216 13284107264 16522206208 19542226944 22371876864
        0 0 0 0 17330622464 21094660096
        24907286528 0 0 0 0 0
        0 0 0 0 0 0
        0 0 0 0 0 0
        0 0 0 0 0 0
        0 0 0 0 0 0
        0 0 0 0 0 1720966912
        4702209536 7409291776 0 0 0 0
        2667128576 6254989824 9602717696 12720982016 15606836224 18217445376
        0 0 0 0 13489635328 17061120000
        20461019136 23815141376 0 0 0 0
        0 0 0 0 0 0
        0 0 0 0 0 0
        0 0 0 0 0 0
        0 0 0 0 0 0
        0 0 0 0 0 0
        1030497536 3699327744 0 0 0 0
        0 2571519232 5850306560 8884055040 11653196800 14155425792
        0 0 0 0 9643776000 13070099456
        0 0 0 0 0 0
        0 0 0 0 0 0
        0 0 0 0 0 0
        0 0 0 0 0 0
        0 0 0 0 0 0
        0 0 0 0 0 0
        0 0 0 0 0 0
        0 0 2011806208 4986637312 7689309184 0
        0 0 0 0 5732561408 0
        0 0 0 0 0 0
        0 0 0 0 0 0
        0 0 0 0 0 0
        0 0 0 0 0 0
        0 0 0 0 0 0
        0 0 0 0 0 0
        0 0 0 0 0 0
        0 0 0 0 0 0
        0 0 0 0 0 0
        0 0 0 0 0 0
        0 0 0 0 0 0
        0 0 0 0 0 0
        0 0 0 0 0 0
      </DataArray>
      <DataArray type="Float32" Name="spharz" format="ascii" RangeMin="0" RangeMax="0">
        0 0 0 0 0 0
        0 0 0 0 0 0
        0 0 0 0 0 0
        0 0 0 0 0 0
        0 0 0 0 0 0
        0 0 0 0 0 0
        0 0 0 0 0 0
        0 0 0 0 0 0
        0 0 0 0 0 0
        0 0 0 0 0 0
        0 0 0 0 0 0
        0 0 0 0 0 0
        0 0 0 0 0 0
        0 0 0 0 0 0
        0 0 0 0 0 0
        0 0 0 0 0 0
        0 0 0 0 0 0
        0 0 0 0 0 0
        0 0 0 0 0 0
        0 0 0 0 0 0
        0 0 0 0 0 0
        0 0 0 0 0 0
        0 0 0 0 0 0
        0 0 0 0 0 0
        0 0 0 0 0 0
        0 0 0 0 0 0
        0 0 0 0 0 0
        0 0 0 0 0 0
        0 0 0 0 0 0
        0 0 0 0 0 0
        0 0 0 0 0 0
        0 0 0 0 0 0
        0 0 0 0 0 0
        0 0 0 0 0 0
        0 0 0 0 0 0
        0 0 0 0 0 0
        0 0 0 0 0 0
        0 0 0 0 0 0
        0 0 0 0 0 0
        0 0 0 0 0 0
        0 0 0 0 0 0
        0 0 0 0 0 0
        0 0 0 0 0 0
        0 0 0 0 0 0
        0 0 0 0 0 0
        0 0 0 0 0 0
        0 0 0 0 0 0
        0 0 0 0 0 0
        0 0 0 0 0 0
        0 0 0 0 0 0
        0 0 0 0 0 0
        0 0 0 0 0 0
        0 0 0 0 0 0
        0 0 0 0 0 0
        0 0 0 0 0 0
        0 0 0 0 0 0
        0 0 0 0 0 0
        0 0 0 0 0 0
        0 0 0 0 0 0
        0 0 0 0 0 0
        0 0 0 0 0 0
        0 0 0 0 0 0
        0 0 0 0 0 0
      </DataArray>
      <DataArray type="Float32" Name="strain_rate" format="ascii" RangeMin="0" RangeMax="1.4830483033041048e-14">
        0 0 0 0 0 0
        0 0 0 0 0 0
        0 0 0 0 0 0
        0 0 0 0 0 0
        0 0 0 0 0 0
        0 0 0 0 0 0
        0 0 0 0 0 0
        0 0 0 0 0 0
        0 0 0 0 0 0
        0 0 0 0 0 0
        0 0 0 0 0 0
        0 0 0 0 0 0
        0 0 3.040158742884314e-16 3.6262118393645e-16 2.0307947106155852e-16 0
        0 0 0 0 5.2109883814113284e-17 1.4116254052246144e-16
        0 0 0 0 0 0
        0 0 0 0 0 0
        0 0 0 0 0 0
        0 0 0 0 0 0
        0 0 0 0 0 0
        0 0 0 0 0 0
        1.5584150503134822e-15 6.237473331824231e-16 0 0 0 0
        0 1.6551092610775993e-15 4.329794992440956e-16 1.0647022034902896e-15 6.369419889182769e-16 1.1659883651499295e-16
        0 0 0 0 1.545473022154147e-16 1.907887582991026e-16
        2.386539681086225e-16 0 0 0 0 0
        0 0 0 0 0 0
        0 0 0 0 0 0
        0 0 0 0 0 0
        0 0 0 0 0 0
        0 0 0 0 0 3.496843809116081e-15
        5.661204842313371e-15 1.4451690746061872e-15 0 0 0 0
        1.4830483033041048e-14 5.82224867547599e-15 8.98689569179959e-16 2.9320409693374926e-15 1.378029537437667e-15 1.7339056921360127e-16
        0 0 0 0 3.3635974796999805e-16 2.0974666591274413e-16
        2.015208113246024e-16 1.4243671630314832e-16 0 0 0 0
        0 0 0 0 0 0
        0 0 0 0 0 0
        0 0 0 0 0 0
        0 0 0 0 0 0
        0 0 0 0 0 0
        2.2738504177835126e-15 4.395893049661268e-15 0 0 0 0
        0 6.1549251006748525e-15 2.3727777250339473e-15 1.9106255375836868e-15 1.8491095580311064e-15 4.506636678284137e-16
        0 0 0 0 1.1996852680856165e-15 3.2977385504685906e-16
        0 0 0 0 0 0
        0 0 0 0 0 0
        0 0 0 0 0 0
        0 0 0 0 0 0
        0 0 0 0 0 0
        0 0 0 0 0 0
        0 0 0 0 0 0
        0 0 7.814149988964042e-15 3.943632089452569e-15 1.344387400475976e-15 0
        0 0 0 0 4.858274783040234e-15 0
        0 0 0 0 0 0
        0 0 0 0 0 0
        0 0 0 0 0 0
        0 0 0 0 0 0
        0 0 0 0 0 0
        0 0 0 0 0 0
        0 0 0 0 0 0
        0 0 0 0 0 0
        0 0 0 0 0 0
        0 0 0 0 0 0
        0 0 0 0 0 0
        0 0 0 0 0 0
        0 0 0 0 0 0
      </DataArray>
      <DataArray type="Float32" Name="stress_second_invariant" format="ascii" RangeMin="0" RangeMax="91269992">
        0 0 0 0 0 0
        0 0 0 0 0 0
        0 0 0 0 0 0
        0 0 0 0 0 0
        0 0 0 0 0 0
        0 0 0 0 0 0
        0 0 0 0 0 0
        0 0 0 0 0 0
        0 0 0 0 0 0
        0 0 0 0 0 0
        0 0 0 0 0 0
        0 0 0 0 0 0
        0 0 5273856 7252423.5 4061589.5 0
        0 0 0 0 1042197.6875 2823250.75
        0 0 0 0 0 0
        0 0 0 0 0 0
        0 0 0 0 0 0
        0 0 0 0 0 0
        0 0 0 0 0 0
        0 0 0 0 0 0
        1546293.5 4096415.5 0 0 0 0
        0 1349012.5 3654404 12301038 12738840 2331976.5
        0 0 0 0 3065029 3815775.25
        4773079 0 0 0 0 0
        0 0 0 0 0 0
        0 0 0 0 0 0
        0 0 0 0 0 0
        0 0 0 0 0 0
        0 0 0 0 0 26219880
        1162034.625 1545333.25 0 0 0 0
        91269992 1198672.125 1371904.5 6257283.5 14450221 3467811.5
        0 0 0 0 3300384 4194933
        4030416.25 2848734.25 0 0 0 0
        0 0 0 0 0 0
        0 0 0 0 0 0
        0 0 0 0 0 0
        0 0 0 0 0 0
        0 0 0 0 0 0
        7634688.5 954338.875 0 0 0 0
        0 16918328 655587 5388955 5546298 3653721
        0 0 0 0 1341954.375 3341771.25
        0 0 0 0 0 0
        0 0 0 0 0 0
        0 0 0 0 0 0
        0 0 0 0 0 0
        0 0 0 0 0 0
        0 0 0 0 0 0
        0 0 0 0 0 0
        0 0 57810868 894431.0625 1445891.875 0
        0 0 0 0 1057965.25 0
        0 0 0 0 0 0
        0 0 0 0 0 0
        0 0 0 0 0 0
        0 0 0 0 0 0
        0 0 0 0 0 0
        0 0 0 0 0 0
        0 0 0 0 0 0
        0 0 0 0 0 0
        0 0 0 0 0 0
        0 0 0 0 0 0
        0 0 0 0 0 0
        0 0 0 0 0 0
        0 0 0 0 0 0
      </DataArray>
      <DataArray type="Float32" Name="velocity" NumberOfComponents="3" format="ascii" RangeMin="0" RangeMax="0.009313756020647096">
        0 0 0 0 0 0
        0 0 0 0 0 0
        0 0 0 0 0 0
        0 0 0 0 0 0
        0 0 0 0 0 0
        0 0 0 0 0 0
        0 0 0 0 0 0
        0 0 0 0 0 0
        0 0 0 0 0 0
        0 0 0 0 0 0
        0 0 0 0 0 0
        0 0 0 0 0 0
        0 0 0 0 0 0
        0 0 0 0 0 0
        0 0 0 0 0 0
        0 0 0 0 0 0
        0 0 0 0 0 0
        0 0 0 0 0 0
        0 0 0 0 0 0
        0 0 0 0 0 0
        0 0 0 0 0 0
        0 0 0 0 0 0
        0 0 0 0 0 0
        0 0 0 0 0 0
        0 0 0 0 0 0
        0 0 0 0 0 0
        0 0 0 0 0 0
        0 0 0 0 0 0
        0 0 0 0 0 0
        0 0 0 0 0 0
        0 0 0 0 0 0
        0 0 0 0 0 0
        0 0 0 0 0 0
        0 0 0 0 0 0
        0 0 0 0 0 0
        0 0 0 0 0 0
        0 0 0 0 0 0
        -0.0003728849405888468 0.00009407349716639146 0.00008457039803033695 -0.0010657408274710178 0.0006430663634091616 -0.0002561925502959639
        0.00011612839443841949 -0.000019816161511698738 -0.00026836784672923386 0 0 0
        0 0 0 0 0 0
        0 0 0 0 0 0
        -0.00007736777479294688 -0.000019549794160411693 0.000039897764509078115 -0.00005160442378837615 0.00001749195325828623 0.00001395381423208164
        0 0 0 0 0 0
        0 0 0 0 0 0
        0 0 0 0 0 0
        0 0 0 0 0 0
        0 0 0 0 0 0
        0 0 0 0 0 0
        0 0 0 0 0 0
        0 0 0 0 0 0
        0 0 0 0 0 0
        0 0 0 0 0 0
        0 0 0 0 0 0
        0 0 0 0 0 0
        0 0 0 0 0 0
        0 0 0 0 0 0
        0 0 0 0 0 0
        0 0 0 0 0 0
        0 0 0 0 0 0
        0 0 0 0 0 0
        0.000020026325728395022 -0.000718805706128478 0.0009073789115063846 0.0001441089261788875 -0.0025861584581434727 0.0014415343757718801
        0 0 0 0 0 0
        0 0 0 0 0 0
        0 0 0 -0.00030707404948771 0.0010655339574441314 0.0011226318310946226
        -0.0029386377427726984 0.0006818563560955226 0.000916477816645056 -0.0026314700953662395 0.0026286060456186533 -0.0015541167231276631
        0.0010634257923811674 0.000915123091544956 -0.00145500130020082 0.00032301011378876865 -0.00032950518652796745 0.00009790172043722123
        0 0 0 0 0 0
        0 0 0 0 0 0
        -0.0003103884810116142 -0.00011951576016144827 0.0002282322820974514 -0.0007713956874795258 0.0002205871423939243 0.00023596029495820403
        -0.00027641336782835424 0.00014763114450033754 0.0000429549218097236 0 0 0
        0 0 0 0 0 0
        0 0 0 0 0 0
        0 0 0 0 0 0
        0 0 0 0 0 0
        0 0 0 0 0 0
        0 0 0 0 0 0
        0 0 0 0 0 0
        0 0 0 0 0 0
        0 0 0 0 0 0
        0 0 0 0 0 0
        0 0 0 0 0 0
        0 0 0 0 0 0
        0 0 0 0 0 0
        0 0 0 0 0 0
        0 0 0 0 0 0
        0 0 0 0 0 0
        0 0 0 0.004184395540505648 0.00016097191837616265 0.0013104594545438886
        0.000612230971455574 0.004988471977412701 0.0019156375201418996 -0.0028570624999701977 -0.0022408098448067904 0.005653103347867727
        0 0 0 0 0 0
        0 0 0 0 0 0
        0.005828034598380327 0.0037388114724308252 0.0006729845190420747 -0.0026798502076417208 -0.001755165052600205 0.008745504543185234
        -0.005087379366159439 0.0011506013106554747 0.002717847004532814 -0.0036132342647761106 0.006269068922847509 -0.0017817458137869835
        0.0033770769368857145 0.003613309934735298 -0.0021554105915129185 0.00049144885269925 -0.0007152115576900542 0.0006508133956231177
        0 0 0 0 0 0
        0 0 0 0 0 0
        -0.0006411198410205543 -0.0003172702854499221 0.0005120317218825221 -0.0012316778302192688 0.00011138081754324958 0.0006085890927352011
        -0.0009789620526134968 0.0004393099807202816 0.00022986029216554016 -0.000010901918358285911 0.00000862236902321456 9.359009709442034e-7
        0 0 0 0 0 0
        0 0 0 0 0 0
        0 0 0 0 0 0
        0 0 0 0 0 0
        0 0 0 0 0 0
        0 0 0 0 0 0
        0 0 0 0 0 0
        0 0 0 0 0 0
        0 0 0 0 0 0
        0 0 0 0 0 0
        0 0 0 0 0 0
        0 0 0 0 0 0
        0 0 0 0 0 0
        0 0 0 0 0 0
        0 0 0 0 0 0
        0 0 0 0 0 0
        0 0 0 0 0 0
        -0.0010846105869859457 0.001891553052701056 -0.0005024845013394952 -0.002898630453273654 -0.002283193403854966 0.0031537103932350874
        0 0 0 0 0 0
        0 0 0 0 0 0
        0 0 0 -0.00260097230784595 -0.006873601116240025 0.0052565899677574635
        -0.0012412519427016377 -0.0016934808809310198 0.0016593625769019127 0.00008548096229787916 0.0018192983698099852 -0.0010271728970110416
        0.0021713816095143557 0.0015772104961797595 0.0006438954151235521 0.00015122500190045685 -0.0005286612431518734 0.0006060497253201902
        0 0 0 0 0 0
        0 0 0 0 0 0
        -0.0011982201831415296 -0.0015510363737121224 -0.0005538160912692547 -0.0009308004518970847 -0.00006555693835252896 0.0003886542981490493
        0 0 0 0 0 0
        0 0 0 0 0 0
        0 0 0 0 0 0
        0 0 0 0 0 0
        0 0 0 0 0 0
        0 0 0 0 0 0
        0 0 0 0 0 0
        0 0 0 0 0 0
        0 0 0 0 0 0
        0 0 0 0 0 0
        0 0 0 0 0 0
        0 0 0 0 0 0
        0 0 0 0 0 0
        0 0 0 0 0 0
        0 0 0 0 0 0
        0 0 0 0 0 0
        0 0 0 0 0 0
        0 0 0 0 0 0
        0 0 0 0 0 0
        0 0 0 0 0 0
        0 0 0 0 0 0
        0 0 0 0 0 0
        0.004268980585038662 -0.0021015475504100323 0.002626007655635476 0.0030142783652991056 -0.004344766493886709 -0.0028438351582735777
        -0.000025530018319841474 -0.00007515242032241076 0.000006256878805288579 0 0 0
        0 0 0 0 0 0
        0 0 0 0 0 0
        0.0012227330589666963 -0.0000872187374625355 -0.004674594383686781 0 0 0
        0 0 0 0 0 0
        0 0 0 0 0 0
        0 0 0 0 0 0
        0 0 0 0 0 0
        0 0 0 0 0 0
        0 0 0 0 0 0
        0 0 0 0 0 0
        0 0 0 0 0 0
        0 0 0 0 0 0
        0 0 0 0 0 0
        0 0 0 0 0 0
        0 0 0 0 0 0
        0 0 0 0 0 0
        0 0 0 0 0 0
        0 0 0 0 0 0
        0 0 0 0 0 0
        0 0 0 0 0 0
        0 0 0 0 0 0
        0 0 0 0 0 0
        0 0 0 0 0 0
        0 0 0 0 0 0
        0 0 0 0 0 0
        0 0 0 0 0 0
        0 0 0 0 0 0
        0 0 0 0 0 0
        0 0 0 0 0 0
        0 0 0 0 0 0
        0 0 0 0 0 0
        0 0 0 0 0 0
        0 0 0 0 0 0
        0 0 0 0 0 0
        0 0 0 0 0 0
        0 0 0 0 0 0
        0 0 0 0 0 0
        0 0 0 0 0 0
        0 0 0 0 0 0
        0 0 0 0 0 0
        0 0 0 0 0 0
        0 0 0 0 0 0
        <InformationKey name="L2_NORM_RANGE" location="vtkDataArray" length="2">
          <Value index="0">
            0
          </Value>
          <Value index="1">
            0.0093137560206
          </Value>
        </InformationKey>
        <InformationKey name="L2_NORM_FINITE_RANGE" location="vtkDataArray" length="2">
          <Value index="0">
            0
          </Value>
          <Value index="1">
            0.035043954636
          </Value>
        </InformationKey>
      </DataArray>
      <DataArray type="Float32" Name="viscosity" format="ascii" RangeMin="0" RangeMax="9.999999778196308e+21">
        0 0 0 0 0 0
        0 0 0 0 0 0
        0 0 0 0 0 0
        0 0 0 0 0 0
        0 0 0 0 0 0
        0 0 0 0 0 0
        0 0 0 0 0 0
        0 0 0 0 0 0
        0 0 0 0 0 0
        0 0 0 0 0 0
        0 0 0 0 0 0
        0 0 0 0 0 0
        0 0 8.713999156400477e+21 9.999999778196308e+21 9.999999778196308e+21 0
        0 0 0 0 9.999999778196308e+21 9.999999778196308e+21
        0 0 0 0 0 0
        0 0 0 0 0 0
        0 0 0 0 0 0
        0 0 0 0 0 0
        0 0 0 0 0 0
        0 0 0 0 0 0
        338070622512286300000 2.5114677980502226e+21 0 0 0 0
        0 283561058131802850000 3.036901359200655e+21 4.7046895728572393e+21 9.999999778196308e+21 9.999999778196308e+21
        0 0 0 0 9.946159244651094e+21 9.999999778196308e+21
        9.999999778196308e+21 0 0 0 0 0
        0 0 0 0 0 0
        0 0 0 0 0 0
        0 0 0 0 0 0
        0 0 0 0 0 0
        0 0 0 0 0 198019809954829960000
        103564249265430600000 368619770237763450000 0 0 0 0
        187608138527233000000 103900224834506850000 532613354487623450000 830258153816632300000 3.9250036058937455e+21 9.999999778196308e+21
        0 0 0 0 3.483764276827051e+21 9.999999778196308e+21
        9.999999778196308e+21 9.999999778196308e+21 0 0 0 0
        0 0 0 0 0 0
        0 0 0 0 0 0
        0 0 0 0 0 0
        0 0 0 0 0 0
        0 0 0 0 0 0
        200376846225432900000 108935108480418710000 0 0 0 0
        0 192504729998649720000 131880359243638900000 406432626027863740000 1.1959085037875867e+21 2.953273173295082e+21
        0 0 0 0 376331164252844850000 3.613114413524573e+21
        0 0 0 0 0 0
        0 0 0 0 0 0
        0 0 0 0 0 0
        0 0 0 0 0 0
        0 0 0 0 0 0
        0 0 0 0 0 0
        0 0 0 0 0 0
        0 0 191303271652746330000 122078028364062400000 367642629856112400000 0
        0 0 0 0 124353269765651820000 0
        0 0 0 0 0 0
        0 0 0 0 0 0
        0 0 0 0 0 0
        0 0 0 0 0 0
        0 0 0 0 0 0
        0 0 0 0 0 0
        0 0 0 0 0 0
        0 0 0 0 0 0
        0 0 0 0 0 0
        0 0 0 0 0 0
        0 0 0 0 0 0
        0 0 0 0 0 0
        0 0 0 0 0 0
      </DataArray>
      <DataArray type="Int8" Name="vtkValidPointMask" format="ascii" RangeMin="0" RangeMax="1">
        0 0 0 0 0 0
        0 0 0 0 0 0
        0 0 0 0 0 0
        0 0 0 0 0 0
        0 0 0 0 0 0
        0 0 0 0 0 0
        0 0 0 0 0 0
        0 0 0 0 0 0
        0 0 0 0 0 0
        0 0 0 0 0 0
        0 0 0 0 0 0
        0 0 0 0 0 0
        0 0 1 1 1 0
        0 0 0 0 1 1
        0 0 0 0 0 0
        0 0 0 0 0 0
        0 0 0 0 0 0
        0 0 0 0 0 0
        0 0 0 0 0 0
        0 0 0 0 0 0
        1 1 0 0 0 0
        0 1 1 1 1 1
        0 0 0 0 1 1
        1 0 0 0 0 0
        0 0 0 0 0 0
        0 0 0 0 0 0
        0 0 0 0 0 0
        0 0 0 0 0 0
        0 0 0 0 0 1
        1 1 0 0 0 0
        1 1 1 1 1 1
        0 0 0 0 1 1
        1 1 0 0 0 0
        0 0 0 0 0 0
        0 0 0 0 0 0
        0 0 0 0 0 0
        0 0 0 0 0 0
        0 0 0 0 0 0
        1 1 0 0 0 0
        0 1 1 1 1 1
        0 0 0 0 1 1
        0 0 0 0 0 0
        0 0 0 0 0 0
        0 0 0 0 0 0
        0 0 0 0 0 0
        0 0 0 0 0 0
        0 0 0 0 0 0
        0 0 0 0 0 0
        0 0 1 1 1 0
        0 0 0 0 1 0
        0 0 0 0 0 0
        0 0 0 0 0 0
        0 0 0 0 0 0
        0 0 0 0 0 0
        0 0 0 0 0 0
        0 0 0 0 0 0
        0 0 0 0 0 0
        0 0 0 0 0 0
        0 0 0 0 0 0
        0 0 0 0 0 0
        0 0 0 0 0 0
        0 0 0 0 0 0
        0 0 0 0 0 0
      </DataArray>
      <DataArray type="UInt8" Name="vtkGhostType" format="ascii" RangeMin="0" RangeMax="2">
        2 2 2 2 2 2
        2 2 2 2 2 2
        2 2 2 2 2 2
        2 2 2 2 2 2
        2 2 2 2 2 2
        2 2 2 2 2 2
        2 2 2 2 2 2
        2 2 2 2 2 2
        2 2 2 2 2 2
        2 2 2 2 2 2
        2 2 2 2 2 2
        2 2 2 2 2 2
        2 2 0 0 0 2
        2 2 2 2 0 0
        2 2 2 2 2 2
        2 2 2 2 2 2
        2 2 2 2 2 2
        2 2 2 2 2 2
        2 2 2 2 2 2
        2 2 2 2 2 2
        0 0 2 2 2 2
        2 0 0 0 0 0
        2 2 2 2 0 0
        0 2 2 2 2 2
        2 2 2 2 2 2
        2 2 2 2 2 2
        2 2 2 2 2 2
        2 2 2 2 2 2
        2 2 2 2 2 0
        0 0 2 2 2 2
        0 0 0 0 0 0
        2 2 2 2 0 0
        0 0 2 2 2 2
        2 2 2 2 2 2
        2 2 2 2 2 2
        2 2 2 2 2 2
        2 2 2 2 2 2
        2 2 2 2 2 2
        0 0 2 2 2 2
        2 0 0 0 0 0
        2 2 2 2 0 0
        2 2 2 2 2 2
        2 2 2 2 2 2
        2 2 2 2 2 2
        2 2 2 2 2 2
        2 2 2 2 2 2
        2 2 2 2 2 2
        2 2 2 2 2 2
        2 2 0 0 0 2
        2 2 2 2 0 2
        2 2 2 2 2 2
        2 2 2 2 2 2
        2 2 2 2 2 2
        2 2 2 2 2 2
        2 2 2 2 2 2
        2 2 2 2 2 2
        2 2 2 2 2 2
        2 2 2 2 2 2
        2 2 2 2 2 2
        2 2 2 2 2 2
        2 2 2 2 2 2
        2 2 2 2 2 2
        2 2 2 2 2 2
      </DataArray>
    </PointData>
    <CellData>
      <DataArray type="UInt8" Name="vtkGhostType" format="ascii" RangeMin="0" RangeMax="32">
        32 32 32 32 32 32
        32 32 32 32 32 32
        32 32 32 32 32 32
        32 32 32 32 32 32
        32 32 32 32 32 32
        32 32 32 32 32 32
        32 32 32 32 32 32
        32 32 32 32 32 32
        32 32 32 32 32 32
        32 32 32 32 32 32
        32 32 32 32 32 32
        32 32 32 32 32 32
        32 32 32 32 32 32
        32 32 32 32 32 32
        32 32 32 32 32 32
        32 0 32 32 32 32
        32 0 0 32 32 32
        32 32 32 32 32 32
        32 32 32 32 32 32
        32 32 32 32 32 32
        32 32 32 32 32 32
        32 32 32 32 32 0
        32 32 32 32 32 0
        32 32 32 32 32 32
        32 32 32 32 32 32
        32 32 32 32 32 32
        32 32 32 32 32 32
        32 32 32 32 32 32
        32 32 32 32 32 32
        32 32 32 32 32 32
        32 32 32 32 32 32
        32 32 32 32 32 32
        32 32 32 32 32 32
        32 32 32 32 32 32