<VTKFile type="ImageData" version="1.0" byte_order="LittleEndian" header_type="UInt64">
  <ImageData WholeExtent="0 25 0 25 0 0" Origin="-1.75 -1.25 0" Spacing="0.1 0.1 0.01" Direction="1 0 0 0 1 0 0 0 1">
  <Piece Extent="0 25 0 25 0 0">
    <PointData Scalars="Iterations">
      <DataArray type="Float32" Name="Iterations" format="ascii" RangeMin="1.8648648262023926" RangeMax="100">
        1.8648648262023926 1.9334889650344849 2.010204792022705 2.1194839477539062 2.2652320861816406 2.447999954223633
        2.6606526374816895 2.8866159915924072 3.0071048736572266 3.024217128753662 3.0453579425811768 3.071216344833374
        3.1018593311309814 3.1350884437561035 3.162729263305664 3.1661598682403564 3.1236486434936523 3.0418403148651123
        2.934480905532837 2.808307409286499 2.6877827644348145 2.5760533809661865 2.4751553535461426 2.3860950469970703
        2.3090147972106934 2.243407726287842 1.912200689315796 1.988875150680542 2.1181209087371826 2.319777488708496
        2.610921621322632 3.0001540184020996 3.0203428268432617 3.0465619564056396 3.081162452697754 3.1280646324157715
        3.194035530090332 3.2914459705352783 3.4447760581970215 3.7075390815734863 4.025967597961426 4.279936790466309
        5.01822566986084 4.14932107925415 3.7514195442199707 3.195685625076294 3.0009799003601074 2.824319839477539
        2.6692581176757812 2.536344289779663 2.4243886470794678 2.3314671516418457 1.9603841304779053 2.087146043777466
        2.348708152770996 2.8132784366607666 3.0170605182647705 3.046954870223999 3.086127281188965 3.1385459899902344
        3.211271047592163 3.317563772201538 3.4848225116729736 3.77925705909729 4.037842750549316 4.193251132965088
        4.845430374145508 6.052308082580566 12.182159423828125 6.334323406219482 4.5536017417907715 4.091155052185059
        3.5792860984802246 3.1095590591430664 2.9365687370300293 2.7373154163360596 2.574495792388916 2.4430971145629883
        2.0189833641052246 2.3183023929595947 3.000626564025879 3.0313236713409424 3.071348190307617 3.123330593109131
        3.1920559406280518 3.286269426345825 3.4225375652313232 3.6349618434906006 4.000607013702393 4.090941429138184
        4.280928134918213 4.7399067878723145 5.263549327850342 7.006363391876221 10.340900421142578 10.034018516540527
        6.0111470222473145 4.598950386047363 4.143984794616699 3.7106852531433105 3.1610267162323 3.0020980834960938
        2.769092559814453 2.5836005210876465 2.1993093490600586 3.0022242069244385 3.0414655208587646 3.0926170349121094
        3.157853603363037 3.24165415763855 3.3526957035064697 3.507402181625366 3.7381231784820557 4.021849632263184
        4.150191783905029 4.380014419555664 4.799953937530518 5.319595813751221 6.234167575836182 41.20954513549805
        23.928098678588867 18.446704864501953 7.5478692054748535 5.256504058837891 4.823498249053955 4.162890911102295
        3.5747668743133545 3.14799165725708 3.0053980350494385 2.758650064468384 2.8275861740112305 3.0453813076019287
        3.1100919246673584 3.1910970211029053 3.2909867763519287 3.4166762828826904 3.5822925567626953 3.8148090839385986
        4.055080890655518 4.253696918487549 4.574710845947266 5.040668964385986 6.157796382904053 6.747103691101074
        7.846099853515625 22.064903259277344 100 100 8.496756553649902 6.377131938934326
        5.836103916168213 5.129837512969971 4.0857439041137695 3.3973450660705566 3.1042914390563965 2.9735450744628906
        3.0390000343322754 3.1219911575317383 3.225691318511963 3.3475427627563477 3.4901227951049805 3.6639902591705322
        3.8906538486480713 4.142119884490967 4.533980369567871 5.018057346343994 5.361948490142822 7.316872596740723
        49.009586334228516 10.177115440368652 20.953107833862305 100 76.48638153076172 100
        37.595298767089844 41.1147346496582 8.071556091308594 15.013904571533203 5.109078884124756 3.7649600505828857
        3.247680902481079 3.054950714111328 3.122140884399414 3.2648236751556396 3.4260919094085693 3.596139907836914
        3.7800304889678955 3.996532678604126 4.591115474700928 5.064134120941162 5.2005815505981445 5.592990398406982
        6.26921272277832 8.244548797607422 100 100 100 100
        100 100 100 100 100 24.530534744262695
        5.851478576660156 4.105206489562988 3.4327781200408936 3.1332273483276367 3.3081278800964355 3.5633363723754883
        3.7958579063415527 3.9946024417877197 4.478119373321533 6.314792156219482 6.0344696044921875 5.8109517097473145
        6.021605968475342 6.5495100021362305 7.897894859313965 100 100 100
        100 100 100 100 100 100
        100 12.112573623657227 6.435196876525879 4.419747829437256 3.6481072902679443 3.224107503890991
        3.896237850189209 4.059457778930664 4.266463279724121 5.047720909118652 6.0922441482543945 15.226520538330078
        9.208941459655762 12.991772651672363 8.718748092651367 8.113119125366211 10.023422241210938 100
        100 100 100 100 100 100
        100 100 100 100 18.354562759399414 4.630799293518066
        3.8747904300689697 3.3191826343536377 4.177987098693848 4.480160236358643 5.073884963989258 5.478420734405518
        7.029598236083984 9.454047203063965 100 100 100 13.773050308227539
        13.263998985290527 100 100 100 100 100
        100 100 100 100 100 100
        8.781059265136719 4.70900821685791 4.016849517822266 3.4072868824005127 4.636495113372803 5.205185413360596
        5.892455101013184 7.2139105796813965 9.182768821716309 19.257978439331055 100 100
        100 100 22.16022300720215 100 100 100
        100 100 100 100 100 100
        100 100 6.639102458953857 4.74143123626709 4.046748161315918 3.475912570953369
        8.021565437316895 6.957751750946045 8.03986644744873 10.08395767211914 100 44.8470458984375
        100 100 100 100 63.791656494140625 100
        100 100 100 100 100 100
        100 100 100 10.744436264038086 6.034979820251465 4.756896018981934
        4.061898708343506 3.5136947631835938 8.021565437316895 6.957751750946045 8.03986644744873 10.08395767211914
        100 44.8470458984375 100 100 100 100
        63.791656494140625 100 100 100 100 100
        100 100 100 100 100 10.744436264038086
        6.034979820251465 4.756896018981934 4.061898708343506 3.5136947631835938 4.636495113372803 5.205185413360596
        5.892455101013184 7.2139105796813965 9.182768821716309 19.257978439331055 100 100
        100 100 22.16022300720215 100 100 100
        100 100 100 100 100 100
        100 100 6.639102458953857 4.74143123626709 4.046748161315918 3.475912570953369
        4.177987098693848 4.480160236358643 5.073884963989258 5.478420734405518 7.029598236083984 9.454047203063965
        100 100 100 13.773050308227539 13.263998985290527 100
        100 100 100 100 100 100
        100 100 100 100 8.781059265136719 4.70900821685791
        4.016849517822266 3.4072868824005127 3.896237850189209 4.059457778930664 4.266463279724121 5.047720909118652
        6.0922441482543945 15.226520538330078 9.208941459655762 12.991772651672363 8.718748092651367 8.113119125366211
        10.023422241210938 100 100 100 100 100
        100 100 100 100 100 100
        18.354562759399414 4.630799293518066 3.8747904300689697 3.3191826343536377 3.3081278800964355 3.5633363723754883
        3.7958579063415527 3.9946024417877197 4.478119373321533 6.314792156219482 6.0344696044921875 5.8109517097473145
        6.021605968475342 6.5495100021362305 7.897894859313965 100 100 100
        100 100 100 100 100 100
        100 12.112573623657227 6.435196876525879 4.419747829437256 3.6481072902679443 3.224107503890991
        3.122140884399414 3.2648236751556396 3.4260919094085693 3.596139907836914 3.7800304889678955 3.996532678604126
        4.591115474700928 5.064134120941162 5.2005815505981445 5.592990398406982 6.26921272277832 8.244548797607422
        100 100 100 100 100 100
        100 100 100 24.530534744262695 5.851478576660156 4.105206489562988
        3.4327781200408936 3.1332273483276367 3.0390000343322754 3.1219911575317383 3.225691318511963 3.3475427627563477
        3.4901227951049805 3.6639902591705322 3.8906538486480713 4.142119884490967 4.533980369567871 5.018057346343994
        5.361948490142822 7.316872596740723 49.009586334228516 10.177115440368652 20.953107833862305 100
        76.48638153076172 100 37.595298767089844 41.1147346496582 8.071556091308594 15.013904571533203
        5.109078884124756 3.7649600505828857 3.247680902481079 3.054950714111328 2.8275861740112305 3.0453813076019287
        3.1100919246673584 3.1910970211029053 3.2909867763519287 3.4166762828826904 3.5822925567626953 3.8148090839385986
        4.055080890655518 4.253696918487549 4.574710845947266 5.040668964385986 6.157796382904053 6.747103691101074
        7.846099853515625 22.064903259277344 100 100 8.496756553649902 6.377131938934326
        5.836103916168213 5.129837512969971 4.0857439041137695 3.3973450660705566 3.1042914390563965 2.9735450744628906
        2.1993093490600586 3.0022242069244385 3.0414655208587646 3.0926170349121094 3.157853603363037 3.24165415763855
        3.3526957035064697 3.507402181625366 3.7381231784820557 4.021849632263184 4.150191783905029 4.380014419555664
        4.799953937530518 5.319595813751221 6.234167575836182 41.20954513549805 23.928098678588867 18.446704864501953
        7.5478692054748535 5.256504058837891 4.823498249053955 4.162890911102295 3.5747668743133545 3.14799165725708
        3.0053980350494385 2.758650064468384 2.0189833641052246 2.3183023929595947 3.000626564025879 3.0313236713409424
        3.071348190307617 3.123330593109131 3.1920559406280518 3.286269426345825 3.4225375652313232 3.6349618434906006
        4.000607013702393 4.090941429138184 4.280928134918213 4.7399067878723145 5.263549327850342 7.006363391876221
        10.340900421142578 10.034018516540527 6.0111470222473145 4.598950386047363 4.143984794616699 3.7106852531433105
        3.1610267162323 3.0020980834960938 2.769092559814453 2.5836005210876465 1.9603841304779053 2.087146043777466
        2.348708152770996 2.8132784366607666 3.0170605182647705 3.046954870223999 3.086127281188965 3.1385459899902344
        3.211271047592163 3.317563772201538 3.4848225116729736 3.77925705909729 4.037842750549316 4.193251132965088
        4.845430374145508 6.052308082580566 12.182159423828125 6.334323406219482 4.5536017417907715 4.091155052185059
        3.5792860984802246 3.1095590591430664 2.9365687370300293 2.7373154163360596 2.574495792388916 2.4430971145629883
        1.912200689315796 1.988875150680542 2.1181209087371826 2.319777488708496 2.610921621322632 3.0001540184020996
        3.0203428268432617 3.0465619564056396 3.081162452697754 3.1280646324157715 3.194035530090332 3.2914459705352783
        3.4447760581970215 3.7075390815734863 4.025967597961426 4.279936790466309 5.01822566986084 4.14932107925415
        3.7514195442199707 3.195685625076294 3.0009799003601074 2.824319839477539 2.6692581176757812 2.536344289779663
        2.4243886470794678 2.3314671516418457 1.8648648262023926 1.9334889650344849 2.010204792022705 2.1194839477539062
        2.2652320861816406 2.447999954223633 2.6606526374816895 2.8866159915924072 3.0071048736572266 3.024217128753662
        3.0453579425811768 3.071216344833374 3.1018593311309814 3.1350884437561035 3.162729263305664 3.1661598682403564
        3.1236486434936523 3.0418403148651123 2.934480905532837 2.808307409286499 2.6877827644348145 2.5760533809661865
        2.4751553535461426 2.3860950469970703 2.3090147972106934 2.243407726287842
      </DataArray>
    </PointData>
    <CellData>
    </CellData>
  </Piece>
  </ImageData>
</VTKFile>
