<VTKFile type="ImageData" byte_order="LittleEndian"> 
 	<ImageData WholeExtent="0 9 0 8 0 7" Origin="0 0 0" Spacing="0.500000 0.500000 0.500000">
	 <Piece Extent="0 9 0 8 0 7">
	<PointData Scalars="T">
	 <DataArray type="Float32" Name="x1"  NumberOfComponents="3" format="ascii">
40.360405 59.323481 10.679098 21.251194 46.707978 3.352130 92.455927 68.287297 2.507366 29.826345 5.598787 87.932710 80.476294 23.324756 17.653649 24.315546 19.363286 95.986450 35.867581 24.462930 7.687457 44.238744 36.401183 77.336897 46.694437 50.707537 23.118974 66.457501 32.549252 84.272466 56.250647 85.775579 96.626202 1.226958 19.033641 68.347804 44.183173 20.480061 13.530287 41.751168 4.995621 64.666309 54.795168 40.700387 1.020774 31.945116 29.180499 37.753091 59.044099 9.698649 43.188108 14.038513 90.753219 91.494420 94.310425 14.509048 77.854775 12.156937 61.726905 50.946306 13.714651 5.219199 95.764457 78.176496 81.815115 94.360218 15.920118 35.678570 68.743839 39.277834 57.359306 36.157996 77.094598 21.759298 58.249034 16.743166 67.257374 84.684737 46.075299 19.108519 40.949276 49.905845 42.232312 98.726278 15.070521 91.135242 5.579095 2.403108 99.943146 21.300471 72.718697 93.354610 37.614140 54.430926 50.458724 15.258192 22.654303 46.651124 23.652602 65.174623 61.641907 39.121506 83.257271 55.057510 3.190903 3.130596 68.975881 40.306250 88.490169 80.005193 35.107956 19.124852 78.520441 9.878360 46.369340 5.377063 17.643148 35.184606 30.712730 57.226930 84.582353 11.069693 93.150826 2.619987 90.152642 14.269349 35.411564 48.746371 25.574734 28.765526 30.549753 6.681113 43.371155 94.148263 77.935659 89.206732 88.446758 25.595509 59.710642 58.730253 43.434204 2.415254 3.846912 21.123766 3.245245 79.199977 17.089928 54.021067 72.239301 21.288979 13.572191 64.573817 71.070072 15.959896 83.419176 12.854386 32.197562 54.054416 15.649197 28.492309 99.252386 39.813911 54.237730 40.778482 48.012382 9.292160 74.813714 72.898231 44.235475 66.509761 24.498648 99.313030 58.887001 87.961657 58.198005 17.046026 71.624508 58.305996 57.645003 29.077743 1.716138 58.830147 9.262128 30.916702 10.400636 9.238649 12.736922 8.103726 43.335935 23.370441 5.481271 31.914730 95.091325 71.042543 47.360155 94.994193 62.161237 45.526838 25.501037 73.457152 71.220980 83.581494 51.047736 81.468111 14.119045 40.681677 54.405198 70.870377 77.834215 87.864128 18.766100 80.760466 38.695041 97.701398 50.751370 47.556024 72.490364 67.986857 2.133477 53.177664 29.506837 63.269775 26.466923 80.301123 53.237137 15.861519 62.135120 79.069136 42.384396 17.953595 87.865284 85.177565 39.031376 95.671341 17.276773 64.982032 99.192902 44.629641 96.153572 4.955212 39.198631 11.270677 16.960320 29.848964 29.555848 70.262974 59.589538 79.572748 16.809598 70.396194 64.325093 31.609517 57.341274 28.808235 10.076885 13.827268 20.351230 63.821979 78.688354 39.138807 4.507748 1.576749 94.317995 33.575533 13.140298 78.238231 51.783637 36.886359 55.184833 75.132257 58.882745 51.962998 61.653276 13.856436 37.068378 60.045765 66.803060 64.585469 83.370905 70.619667 59.066725 4.989211 36.226877 41.549650 90.960495 61.894385 35.628012 30.731060 65.613860 21.227962 49.516050 60.727914 15.006802 62.181475 45.475879 85.675748 12.199171 78.732905 60.909639 3.921247 31.598290 91.841017 50.045603 63.241979 66.436213 49.894212 76.434303 11.661009 50.477271 4.088654 59.827874 51.179080 16.419643 94.943050 13.163988 2.901226 90.962132 3.714407 18.950173 21.962994 30.248215 57.804039 12.896645 1.029271 87.078791 29.993508 98.385748 35.226945 85.945026 29.441117 2.433680 9.050218 4.984484 26.277422 40.264185 15.346069 64.075910 15.500874 98.704091 61.023218 87.622966 20.794082 95.673616 4.589277 45.955586 21.417183 43.309109 8.780976 73.850486 7.974196 83.616061 74.361970 42.728084 49.463334 21.993932 37.627104 41.356509 85.990784 85.212427 35.399698 11.248328 96.912917 24.595591 79.876677 88.590103 3.009785 98.847220 22.280806 94.445462 77.051389 61.498386 7.966496 50.496344 47.656827 6.998996 35.074097 62.830455 85.405957 38.945774 96.126398 37.697556 16.110204 67.884789 55.515046 94.802011 76.837257 47.587432 83.421653 81.802146 48.896727 93.843109 28.794428 58.436293 26.400301 68.678274 96.633035 46.663633 48.238359 97.790939 70.277412 39.455437 8.913564 29.488955 28.506148 47.812114 62.083276 43.181409 10.954927 72.178638 30.417569 11.627971 47.439127 49.469142 77.060330 19.887315 55.078054 10.984198 59.257428 59.411077 10.013720 81.666073 35.414168 6.501447 21.320996 63.128272 14.968682 84.534850 98.675262 24.359788 45.741982 49.915042 5.205538 81.344214 50.751238 34.762764 80.208466 3.264540 69.315374 66.159166 92.224150 12.986514 55.194700 57.725434 18.378825 54.570436 44.992624 18.778709 87.153098 29.851254 53.343022 41.185484 42.937861 52.778522 64.818764 41.905541 42.374299 67.029775 18.441357 55.352807 40.032704 64.218667 47.223985 41.870153 3.403927 49.340795 17.526119 65.098184 61.351804 74.106801 27.049122 32.629942 79.815927 98.530325 86.038351 32.636324 32.982973 16.866849 68.908812 3.886379 79.217374 63.237580 80.332471 34.935078 26.479433 60.777401 74.303143 94.309113 71.564653 75.850409 9.901213 28.570830 32.726017 95.756845 99.232838 82.216706 23.798067 99.070801 23.662523 70.984489 70.752239 42.680944 67.935483 29.650408 92.844677 70.237195 48.539943 99.722853 89.871804 25.830293 52.665142 27.192911 88.061485 2.858397 51.903267 82.954111 6.224300 11.192800 87.958565 66.633825 11.727761 86.736747 26.218185 96.645250 32.869152 10.429838 91.537013 38.709802 1.396589 90.936227 89.001287 94.533560 62.804415 25.093303 22.416352 46.731713 95.435236 18.775413 45.506663 33.993911 13.312268 49.957513 53.944557 74.759374 86.917198 38.373097 70.553936 10.325427 74.899452 54.686567 16.987288 71.385914 30.112181 26.949902 2.591764 17.777921 51.195580 77.303379 4.027363 33.513408 36.484098 90.463985 1.056703 28.640886 49.407863 31.011507 75.833704 89.065714 65.149732 68.467071 7.330835 68.965515 31.527265 28.625237 93.249087 56.166175 24.000792 90.629165 29.244473 80.633977 63.274627 3.091919 4.475645 3.150300 83.737005 55.726809 86.386010 28.477311 62.850683 86.072695 2.162720 27.138168 73.134788 54.489243 97.407753 54.321493 57.127719 55.695361 56.309889 49.702663 26.861021 63.006592 79.319536 50.072895 80.514404 45.189204 57.553758 8.213156 32.656774 32.085321 73.199392 67.278101 16.706720 91.242165 31.925951 82.771943 4.858406 64.525926 41.515159 64.736405 5.987903 17.103309 82.178392 20.927238 77.305502 66.662821 88.619229 62.931511 11.468118 1.423139 34.878722 27.685055 53.921149 89.617771 16.620335 42.563786 37.690885 97.385316 38.796236 5.432658 37.010482 28.820601 44.304338 32.607623 13.949700 66.803066 24.335218 40.388000 22.210579 87.206062 6.123980 47.331701 65.121031 49.433798 57.267051 24.391921 68.028886 70.618442 18.217569 80.957684 36.397414 30.270762 17.900869 63.597886 92.357436 98.556152 98.243678 11.466656 37.123859 59.398206 20.899927 46.145342 44.231863 55.632063 1.648071 2.719324 13.616955 20.860863 15.125015 7.285937 73.622653 7.082546 41.704758 2.810791 28.857492 85.751744 74.350107 12.532767 60.607429 30.750372 61.777907 97.014647 51.513454 54.718513 48.758336 53.669643 61.605663 41.121833 74.939576 19.331665 5.227804 83.170227 85.803834 21.957727 20.947744 77.312383 32.363997 6.865527 2.103607 9.086210 47.696153 27.318993 85.694132 25.935647 93.415691 14.542389 26.792766 78.409110 74.749031 36.315382 89.250504 96.162250 26.358787 28.294413 41.227444 79.713915 68.026880 90.369366 77.879168 26.941388 93.547566 64.155023 32.727071 77.237927 8.534515 12.331218 22.976989 90.828867 92.744454 17.882784 4.543023 53.937650 64.443989 13.658495 58.662919 87.098020 40.262665 50.011506 41.274706 71.571910 24.556091 81.661557 93.616179 94.060333 17.368782 57.163534 13.609391 33.632142 70.128062 22.799770 92.128213 30.740038 53.458539 37.268708 3.308876 56.841254 88.264205 70.776133 24.519093 5.745168 50.600901 67.583553 43.554645 75.931529 62.923800 29.968963 72.586923 52.376585 90.496912 24.951008 79.116321 4.162074 6.681901 24.701707 26.983611 24.100377 7.095098 39.255247 77.620651 40.721983 44.283907 80.621477 43.033372 31.211414 7.270604 91.898932 60.212974 97.568395 18.034366 75.647904 86.487004 44.136979 39.297624 53.966757 19.217925 45.907106 23.504042 11.450057 89.190293 13.279770 22.546089 14.046656 89.282139 8.468429 42.069357 48.862829 38.744470 30.417738 91.993684 89.572969 4.416022 67.161307 34.409817 35.616923 13.017852 70.471541 7.655664 99.528200 1.904188 26.393011 57.990174 27.154271 52.499708 16.560876 24.409190 71.099653 13.186695 59.567107 13.491030 97.252839 76.165777 92.774413 87.132786 47.965282 52.761210 6.802874 53.627440 29.859812 54.416374 88.775168 26.406555 57.260847 69.765051 44.889423 36.542912 7.085978 66.128520 56.725250 45.616422 14.670760 28.036980 93.284144 49.634592 86.143813 73.669532 9.683165 32.656779 8.540222 43.639723 99.623903 45.660729 40.131504 11.094821 52.785852 12.845239 38.338680 32.241929 69.623334 23.724280 51.755827 78.386751 87.715471 92.507835 56.129146 18.960156 74.275301 99.834748 29.994884 43.654759 38.599725 85.283866 10.542201 31.777049 5.447160 18.412280 39.132373 82.961641 61.872684 83.506832 8.787908 20.992258 20.967343 17.726930 39.958369 52.179029 72.243780 69.341113 25.576189 56.650737 58.736728 50.385080 9.720614 29.531338 55.595050 39.405087 3.750930 60.193112 68.668589 29.208268 57.040744 9.248814 30.435526 80.988061 96.395262 29.905201 12.692820 84.229464 52.617459 28.140397 21.435509 89.002632 93.479092 93.648101 6.070978 5.467233 71.362250 99.582740 79.901607 27.238383 42.630072 23.338903 48.064475 93.846146 30.873788 28.623097 69.347791 24.791031 62.781295 48.716050 88.467424 4.789724 39.462568 44.544548 55.660077 62.631936 73.425622 48.925108 22.385582 97.150589 36.446503 47.002791 87.184272 55.283980 8.292665 13.557126 59.019928 74.171434 9.995828 73.785183 78.244720 56.807605 78.008260 59.048492 90.943877 46.735399 66.679269 65.124973 91.745339 52.520020 56.642354 8.003143 2.703251 29.543602 32.019265 76.221471 95.902023 96.192500 69.932300 94.774727 89.964784 63.575935 13.050434 39.807173 96.213729 16.869366 13.919430 9.890669 46.953755 62.208564 32.917048 37.626623 95.457910 54.950456 66.254446 22.640044 38.422006 2.548806 1.613652 35.667979 96.819735 64.126499 83.158725 23.295190 30.888857 67.857532 82.536867 97.008913 64.573180 9.512554 48.355963 35.776184 50.435587 51.324366 56.860164 76.015958 90.657015 69.644158 13.979787 19.718212 35.358924 30.337195 77.562749 98.490236 98.354862 38.721489 63.490305 43.853575 47.341310 4.706715 54.128225 40.344044 47.206286 86.822286 42.511214 2.952873 87.398123 3.001387 66.338651 27.553847 88.269151 68.591867 83.972874 77.957717 48.955664 74.582395 57.285366 73.631315 40.110973 47.289080 42.763301 92.968702 51.742900 27.200383 31.390000 35.293626 32.679807 31.054850 93.024479 9.442571 58.093676 43.488239 78.720403 87.032354 42.296769 34.383059 59.598452 25.043744 84.664041 53.995699 39.680738 48.652703 81.807080 32.261553 96.958994 71.648886 63.850918 80.877770 69.865064 52.600168 57.543372 28.760836 93.470117 29.876042 9.275508 59.308827 35.828226 36.119510 74.240211 94.965379 30.309641 94.083769 64.544021 6.095243 23.435326 18.986951 58.414700 5.129069 62.822911 12.846508 91.092682 29.117201 14.607797 70.791289 53.763134 8.850287 55.453435 19.683075 87.862466 81.749697 97.761359 27.587584 89.509501 88.122058 38.187482 33.016184 18.173310 86.217328 20.471186 61.251664 70.441159 36.850811 91.828773 91.315707 72.360228 64.379596 73.039614 61.982400 63.204537 57.839282 38.852197 58.167424 18.869554 60.629379 32.971463 57.012488 39.940116 12.160200 32.421677 95.137564 31.798740 57.980528 7.918459 74.734765 49.981190 90.683016 38.360583 62.811677 30.431189 63.478547 88.035378 99.942938 83.177335 8.074866 34.171255 17.080987 49.844031 71.727958 96.861606 47.633829 24.986682 67.841377 61.070565 72.851993 64.733690 31.651111 3.989511 93.820600 19.282715 87.837600 48.719146 30.935629 25.452161 22.277062 59.411947 96.459628 23.696642 27.558224 47.146427 83.547372 66.055139 98.692372 17.242441 88.721588 90.543397 87.240663 32.653467 69.581753 2.534323 24.469839 3.821441 79.065351 1.568096 81.636079 16.357864 46.261264 40.373041 55.297457 32.320126 58.274876 97.748426 88.430562 63.385775 14.119223 72.848848 29.882542 43.419515 69.507608 90.291060 15.921736 74.647890 82.856961 74.370887 43.290007 65.733353 35.248289 60.823315 62.651287 79.301332 47.687504 44.839361 37.575423 1.129290 4.585550 92.415713 78.692870 23.280666 12.272796 4.699992 83.779477 48.735624 32.550967 98.723113 24.214452 36.673397 30.199125 86.007561 53.681183 74.462493 86.096207 94.362644 29.154303 86.692999 24.708775 30.142062 69.184896 60.756049 8.633748 3.177194 44.206675 99.882261 83.554605 71.342604 54.128745 37.026272 21.826613 80.485740 66.910884 74.857786 3.871772 77.375204 89.625319 41.966344 84.745419 51.762242 5.937901 88.187947 34.269733 99.331401 1.071846 17.183543 88.112771 68.292791 17.817381 4.630273 5.430387 22.991321 89.874797 87.312509 48.837010 57.694524 69.827114 41.287220 7.451713 83.495739 23.559417 71.510876 3.670373 94.098273 97.067565 25.124571 72.607346 64.726589 81.244165 11.989980 34.896651 16.789596 66.947121 26.950108 67.544086 42.114954 55.017648 96.165901 85.637870 17.753612 90.160483 10.237128 91.683460 2.792375 2.938269 17.668936 75.467234 33.325374 61.592973 27.735906 10.366418 95.269010 94.208088 80.631139 39.949602 86.740030 37.025366 45.372450 75.471530 41.917384 93.992124 18.422540 17.304536 69.148726 72.747590 89.706549 19.834943 61.567737 36.280028 23.146427 5.115540 41.013311 98.290789 41.932486 50.462598 27.468691 63.744931 79.486703 23.028688 87.670144 12.355915 52.419533 77.958759 71.289211 7.954431 30.655816 54.344489 25.900460 65.045349 1.981234 93.385878 62.704177 23.051453 12.892332 18.843762 87.614222 25.231861 65.117195 18.164777 81.498649 30.996968 39.868834 16.522605 23.274150 10.605544 15.106658 52.429705 66.001787 39.193173 99.824082 80.156053 22.974318 6.769888 33.164961 85.617534 55.100078 60.100060 36.260738 24.948653 52.763399 86.700907 87.014053 44.154941 20.514185 70.889674 27.047181 62.210845 91.492739 93.878353 41.718555 83.179955 29.792811 37.267798 61.050157 36.284309 53.894306 93.285114 95.816622 58.387491 58.647188 62.118185 97.860771 87.786064 45.650727 49.163316 87.493202 76.447760 97.337093 45.387218 98.143552 43.233221 63.257594 86.568111 43.155440 5.915742 92.752296 66.485819 18.134808 87.850101 62.068164 24.825331 22.848139 65.301866 10.031282 33.765606 64.776607 59.067294 38.312698 88.536855 87.570262 2.334842 87.330554 96.701426 45.121521 17.196141 37.026053 9.601909 95.491286 18.226078 55.679331 13.231015 61.746775 46.102756 10.582018 98.730230 31.653362 8.383618 36.069840 43.293553 37.462876 26.863970 63.267533 91.080667 29.727198 70.522196 23.906223 58.343990 52.899097 51.569534 78.293675 29.269320 30.273839 29.551280 50.678250 45.880541 64.113878 85.064058 37.187068 33.393753 88.369380 65.534577 53.499933 3.441649 32.581448 51.127931 29.218999 56.701254 4.283427 15.416561 27.745423 44.992672 96.320002 73.300003 34.307886 58.011809 92.969051 64.333584 50.700870 80.639729 38.277786 92.136623 31.687494 91.955074 20.129995 90.829822 52.119648 95.351597 29.803045 25.770987 68.584383 29.024587 37.342292 18.273546 34.063043 15.377242 81.919708 71.958484 30.686729 61.336679 94.510406 54.477100 6.123647 95.131208 39.202573 4.767847 37.260351 39.718011 94.102286 59.287013 13.544394 43.436345 83.668063 26.772835 6.102689 24.590905 36.419437 39.223807 75.483154 49.570447 52.038255 79.159349 43.998913 60.782021 36.821920 97.166212 84.326562 85.065172 48.300678 82.691617 86.542967 79.068752 4.075574 73.284796 24.030182 47.594095 76.145839 77.027876 53.213813 10.449190 37.412742 55.974671 24.854330 2.323857 75.863415 6.419678 6.579156 3.892063 55.329731 1.526620 41.038728 61.041399 34.717610 64.232795 70.954256 59.079089 6.333712 86.911179 51.654551 69.257727 17.742652 38.001037 78.649356 97.699678 4.071761 2.653713 60.211182 84.962437 27.269536 10.711704 2.334621 29.350226 78.339407 41.349546 93.790336 90.898677 76.917511 46.399531 1.541526 53.454269 24.701823 8.142451 66.120534 62.374720 19.923263 14.259803 63.673077 34.604569 67.831511 6.621531 79.100936 95.807263 23.711398 14.433669 67.736903 68.796724 29.735776 7.034084 10.389379 16.361287 35.525274 17.813684 72.720682 80.281297 12.233069 13.403839 32.806919 15.492068 39.952192 70.944711 56.037491 48.203836 29.851745 63.271324 91.563188 75.805831 75.274089 75.774112 68.110923 40.364053 33.269008 77.152422 45.962941 78.106155 54.874583 78.349662 49.058908 91.141104 86.958148 9.414846 54.180298 98.176754 87.555345 91.287325 34.324333 72.913238 92.464961 62.821563 14.834524 59.759455 2.068817 42.885076 91.813945 74.363061 33.954637 27.182571 27.054358 84.788780 18.838544 7.402529 29.796255 43.468496 43.620788 50.697289 64.183607 5.703714 82.488458 21.910304 9.056242 89.007437 28.430934 69.890325 60.408993 65.518228 34.053940 60.827865 62.259851 2.846579 79.906114 5.348445 16.289856 60.950519 18.972497 57.755763 67.970317 28.380385 64.221298 98.829377 18.608248 78.962933 94.555088 85.804008 63.377294 47.071252 24.187648 86.932697 13.263046 85.345151 47.759657 24.290864 91.838092 72.766673 62.432539 58.712922 4.746381 84.983728 65.626448 58.992726 36.694703 24.645010 87.258741 2.384731 29.657633 59.783871 33.187564 94.478193 22.264050 28.257891 99.450842 62.532830 77.158843 96.768555 99.147924 65.456572 71.630615 67.226991 6.364046 54.325425 40.882492 26.217751 87.909660 86.106073 73.871418 25.810913 65.403745 92.919391 45.612750 74.206825 98.130989 80.374620 48.927636 87.705942 84.570368 66.472562 35.804467 37.426695 48.569886 32.085626 7.557191 74.981994 72.494722 3.408911 72.875091 64.600721 79.895192 91.190675 81.782916 70.740798 79.685708 54.983180 24.319216 80.931333 53.608158 8.326125 61.081000 42.191909 36.259027 13.739648 15.811045 85.579067 82.777912 33.514272 12.674570 76.370856 3.142427 54.231524 70.495411 82.781362 13.959451 46.999210 32.343649 30.282818 55.333789 96.697515 40.035532 33.872705 29.852614 37.147099 33.931907 44.606695 15.627969 3.093446 20.988379 31.873624 6.639378 91.285153 94.860021 37.678287 29.590424 80.254417 61.086172 56.683082 55.518635 92.898119 92.669884 24.517653 96.462158 61.777988 74.732610 82.350222 83.940973 54.969476 55.430948 69.828727 21.286208 95.610083 27.234559 46.363224 49.577212 89.305019 9.294901 95.313440 95.046477 9.195868 81.716155 1.105977 71.174138 14.980957 82.224409 53.907652 69.520265 93.177467 88.570488 30.643791 87.811920 55.744505 80.453519 18.028876 90.334347 18.090152 25.263093 95.127679 5.625785 60.306642 58.153417 53.328609 81.629597 70.229539 9.280827 7.046008 65.868478 84.311493 15.289822 81.472632 34.259942 35.237756 77.555665 69.361827 48.237917 2.127504 97.051141 30.100868 67.051699 17.037854 67.752028 89.230235 45.732682 50.380345 55.359028 67.546551 12.882229 80.011150 63.037064 99.095677 19.513053 1.066471 47.077860 94.394561 1.419256 41.734844 17.158249 95.968970 43.702373 34.141022 3.159917 67.066239 26.268185 7.058633 33.019997 12.018269 33.647258 72.292796 14.395438 63.246089 23.749321 80.786820 98.956752 25.689881 35.535923 30.109416 34.070784 88.128048 45.596310 7.690294 35.756297 54.387700 94.518608 55.822131 25.719499 60.305343 34.491272 94.173523 95.995312 44.051198 49.701140 89.565085 64.017999 7.435654 60.411321 5.665410 9.154480 78.219721 96.958850 19.221406 82.742552 52.588487 37.079445 48.223240 60.409915 88.607998 95.248597 87.293197 36.311558 8.005645 47.716167 41.705230 8.529882 18.563332 41.936608 76.878195 57.522736 44.592384 14.051653 13.584644 26.016723 22.819704 99.035964 75.196550 12.115951 35.078400 13.954211 61.289570 14.712149 23.067863 51.920572 66.087663 91.234404 78.867979 24.308635 58.686893 11.669915 69.071177 89.614414 63.802801 46.098813 54.271468 77.963656 42.821688 58.753365 57.747775 63.465738 90.033670 5.537645 62.257061 50.240438 21.666028 75.962709 60.913281 24.814013 88.733923 96.092303 37.557642 73.275331 82.887695 92.958824 89.358148 24.159370 47.563334 69.520743 95.049055 62.247523 8.811253 12.997111 27.029608 77.486196 68.755680 54.253628 5.277040 49.436755 56.766131 63.633384 37.716610 86.334952 11.977468 62.929203 50.248940 48.328238 98.137896 46.331216 27.651383 44.152264 46.746273 16.642878 71.083683 28.468661 45.287088 17.359302 29.073768 79.239871 80.231709 93.969513 76.052793 59.691681 23.717259 32.580284 52.670859 36.079412 26.956037 21.936938 2.499395 93.616125 1.628289 99.595453 89.103020 96.263244 49.131065 39.540682 46.953661 24.319099 92.652089 75.824839 11.711404 24.181420 10.217455 10.420636 53.252830 69.021525 75.239671 58.739752 67.059242 89.579382 47.490055 67.904348 21.090551 22.324007 58.635939 39.042472 4.838564 21.330710 67.543038 89.311743 26.657713 77.838325 84.789745 48.669609 43.580117 66.095626 70.571148 88.209066 65.274453 86.570994 2.652339 73.523668 44.761912 80.137759 39.370956 53.458843 81.167891 54.632600 10.730364 49.215673 43.044411 39.810968 42.385282 47.182209 65.455955 8.197499 32.118796 78.486044 3.469301 47.321451 88.247723 98.151412 10.815594 3.172565 93.532451 43.096264 41.415248 52.718241 94.649689 86.385619 44.482628 37.466977 46.324828 40.278723 58.739143 12.498931 80.186902 39.936776 3.744920 72.556396 16.706848 26.556537 34.248236 34.791936 71.190612 3.904161 71.517061 55.415779 8.635808 42.662885 47.493475 35.747631 28.408060 71.818901 3.499614 60.620081 51.679023 56.766873 81.203567 93.447137 59.066730 21.060149 47.643739 14.211018 83.801501 60.896478 66.187509 34.456398 62.468661 34.306401 78.799901 14.702982 3.790400 31.291556 28.800826 86.278060 55.780405 21.104600 72.348872 82.638465 35.033691 70.333438 20.603299 54.458538 64.116385 40.570150 68.774209 15.928989 48.734091 5.604839 58.542505 84.877752 41.029532 65.768724 14.093818 13.536121 95.066748 87.105047 58.063683 39.710395 39.510352 50.759896 14.984397 56.138229 52.347089 37.452029 34.287256 23.519637 46.907894 70.629148 29.245941 17.453698 3.459680 40.594812 35.603442 44.102850 25.692202 40.440345 13.725413 69.661188 69.171939 97.109369 26.980430 79.086070 80.569827 71.017030 79.719068 71.464555 81.160119 49.358841 37.046146 29.725351 51.642466 96.276675 96.573567 13.967304 6.256491 52.350731 52.263002 8.563207 84.141130 59.278274 38.939561 44.067042 48.714935 33.664551 24.169631 54.762616 68.183287 35.820153 16.045147 20.143128 37.514179 7.781665 53.724701 70.813371 67.973634 51.984788 95.716631 81.232656 53.599526 98.982840 41.088066 32.524602 84.516352 70.764034 82.276344 24.517456 67.510716 9.379931 20.087440 13.436938 15.163067 19.550044 41.097472 2.879643 77.975994 31.627101 48.950081 87.861649 28.365927 62.897158 24.154883 98.639977 86.757395 19.005527 96.395825 62.043899 1.397770 23.432675 50.002205 81.218566 38.350372 26.267747 68.765423 11.380222 18.182128 52.744859 59.884705 83.289461 4.738203 84.258266 95.896895 97.011363 27.833920 20.641809 92.339670 94.488146 27.392311 29.430405 24.698611 9.622308 66.672552 96.005859 17.751178 19.320101 73.574216 7.962138 99.447435 4.417679 80.086863 47.832670 45.364699 53.797324 48.045451 25.216682 4.238814 96.021001 17.384983 85.343354 99.183401 96.627701 61.360530 32.186581 83.494956 42.178374 40.088044 65.099918 19.007905 23.353032 51.390316 29.543818 67.006734 98.540103 61.321502 76.602222 71.881583 71.732606 93.166403 19.363950 80.528606 62.723364 79.772759 14.921028 75.585062 12.969649 4.257208 77.682755 89.127984 62.804949 86.240821 47.283475 23.300959 94.672502 25.406587 18.420275 96.232799 30.225456 64.684592 64.216815 77.910576 71.251039 82.534151 52.772515 80.317432 20.387682 28.865433 51.441987 82.222342 74.306400 33.294938 82.931920 75.205190 30.319637 1.606247 66.215805 76.709734 50.987765 84.686622 50.477066 35.676779 35.089894 13.609098 5.344450 50.474072 72.606629 47.999128 12.520542 70.118874 28.016449 29.578041 40.001409 33.774855 74.172683 81.228936 14.671680 8.526401 86.870052 46.336550 3.152257 46.963547 33.222289 77.590362 61.315799 61.504350 52.891100 40.667376 93.382001 27.368939 50.202361 29.243291 93.975345 46.659153 60.687751 49.518801 2.027907 25.568582 10.863895 91.380735 68.331334 59.075263 64.667059 83.040783 99.909117 30.571724 91.575316 9.403998 52.702237 44.933557 30.956847 36.399665 76.207186 19.273067 11.100330 54.298680 88.176756 66.623265 20.518619 42.926496 39.656873 53.889941 8.401051 72.905279 40.539501 35.460231 88.924223 15.191121 67.333083 57.077147 50.122740 37.626508 37.589872 4.756316 13.370807 60.175263 96.725271 20.105598 37.394580 69.510422 65.491941 88.031859 85.978658 86.677207 92.470200 79.657192 94.310787 66.714216 70.116669 31.707746 64.741592 36.966422 71.363829 42.947266 15.333971 29.400681 79.323314 74.461119 81.181818 37.348221 83.965550 82.884371 13.066141 42.350420 57.978722 19.324723 8.235974 55.354501 18.577157 97.637230 90.410772 98.936193 87.686970 60.130979 65.288270 40.458263 32.944862 78.892956 59.141580 43.301872 39.603569 81.068971 86.499918 15.490630 68.701554 26.920207 25.552109 19.829331 91.820673 40.631476 6.637553 96.363813 6.871365 37.032888 84.995470 89.219168 2.870114 91.729790 70.203201 97.212869 5.767810 58.573602 80.966444 15.952317 25.618832 78.077300 11.002857 80.303530 51.511549 92.944567 25.196867 1.485063 57.878812 64.275705 31.967242 18.403908 53.208810 91.051050 28.404798 14.121090 15.676184 25.211895 21.352852 81.089982 55.030416 89.798681 94.807366 40.775604 73.296353 12.401456 44.317493 57.747432 50.600404 20.522357 77.830540 80.786024 27.452811 65.766553 91.058647 38.628280 24.461648 20.717073 51.230103 42.572132 17.752446 97.816640 8.713819 6.392618 67.028961 3.784962 94.178193 32.411921 78.920352 1.717996 80.701012 20.779960 47.743038 25.007683 22.109685 2.414166 86.766421 96.497509 98.355226 71.111784 19.716153 35.430009 84.138662 86.397955 41.872429 19.711284 75.390465 57.496805 14.413655 58.319723 16.498980 70.638579 1.888585 10.573983 45.631490 99.942574 76.326136 6.234328 97.951199 22.136533 67.002392 7.759950 46.606871 30.626961 89.161742 78.196250 96.964118 68.154400 19.349402 71.770202 65.333552 27.573315 45.579277 14.780574 56.273550 7.966975 48.457930 69.860951 64.714769 89.530419 28.058379 3.458090 78.056278 87.240792 25.370883 1.666739 60.912001 92.119566 3.651509 42.734563 27.669985 98.409131 68.330774 79.401299 90.465420 55.719367 32.895170 75.947862 54.136018 70.987478 56.156562 18.931178 98.923655 68.295960 36.505391 59.347981 41.714415 45.194666 9.615758 79.618211 38.648251 50.153758 10.868092 53.257837 57.164621 49.428234 50.587284 75.644719 82.403173 32.826443 81.565679 88.788444 53.975833 37.865633 69.208195 97.330322 99.652402 4.512858 34.240610 68.332100 85.285953 52.331059 8.977416 87.924348 32.760331 83.791064 89.910813 75.113039 87.043384 60.676418 9.827864 22.391072 46.244071 48.259310 54.429643 90.799398 84.687022 32.674874 60.618992 85.154000 27.625400 44.195270 69.395843 21.432035 97.559347 31.293893 62.301835 49.780733 63.350250 24.589518 12.349669 87.745245 92.202237 62.892899 57.867208 7.881112 63.561307 19.623800 31.556492 59.807599 57.606196 56.917006 52.423318 84.925586 10.339202 41.617585 6.864592 55.927375 60.474338 18.518197 49.036572 55.074826 27.660149 37.009186 40.026716 74.195366 35.328674 50.939759 73.237564 80.931742 31.022688 80.796167 7.996664 95.183278 92.126543 34.252329 19.235719 9.742955 40.279723 71.737103 25.990833 16.612422 74.801489 30.774794 83.406087 29.103811 62.000792 96.444344 21.165337 75.578117 91.257142 57.204662 62.601238 64.971766 17.892255 15.976625 34.309977 89.373532 72.908439 90.909544 60.717520 95.841847 33.303866 3.178208 67.307683 42.287394 77.297880 5.668770 74.700608 50.628332 70.954886 20.347250 62.854626 76.135547 63.678465 23.541950 52.928081 29.130251 41.427730 55.641908 52.022124 23.473617 61.289547 90.303865 66.737220 22.323924 49.562286 38.987077 85.935801 14.323959 72.254351 24.639797 14.893383 78.086889 10.069168 41.764523 1.879976 43.803009 21.205071 35.815657 43.263597 45.449875 37.894489 66.675364 97.681529 53.303293 28.728595 30.544273 76.433243 49.128189 1.377250 97.368827 84.193561 46.718100 8.378120 55.388744 66.553459 16.459959 23.323555 35.705924 48.308586 57.431125 27.649842 38.400808 36.184911 73.550124 11.643237 15.450098 68.958253 66.544305 66.174080 66.929565 10.137911 61.175744 89.162546 85.444726 45.224893 52.364340 94.648115 28.174871 63.373909 30.303248 36.753861 80.419688 42.649388 7.826130 17.336106 12.540370 43.151496 96.683886 19.676780 9.662300 71.329231 3.366907 3.667978 49.639972 14.718578 10.459179 38.971280 95.974659 14.331070 46.029839 52.995240 73.622864 68.987222 76.573203 85.594727 2.649745 19.516610 66.259150 74.160090 93.422969 29.264773 21.009347 99.046820 46.884274 91.953610 85.253830 87.583074 23.722376 32.410046 15.200574 34.333306 71.301171 70.524071 6.846993 63.340719 96.652242 64.486900 33.290022 58.003582 54.538377 7.116828 13.787668 51.296869 1.235208 63.327606 62.168428 85.593316 85.732177 84.082650 82.550071 61.915858 51.674119 97.604035 47.521167 8.886528 92.971435 41.120921 50.636109 98.010030 84.239413 86.380043 45.912620 4.952292 35.536371 31.372243 76.305833 24.186233 9.653268 98.689511 55.338296 12.456925 70.126371 2.465935 40.510154 37.481577 13.348779 94.097994 43.914404 7.702636 7.105040 97.301243 64.839845 69.813402 73.235437 92.768467 36.747381 50.740534 24.038742 18.645410 40.452739 61.523731 88.490182 81.897737 64.097698 39.114288 53.408512 72.678714 32.363988 49.911918 99.495011 84.464841 95.228807 10.127537 91.109528 27.031376 41.665936 8.937191 35.506645 2.144756 3.981450 61.487958 83.287628 84.532497 55.296149 61.675283 7.984011 81.390918 93.098366 88.235280 49.071032 7.010004 16.942543 69.496723 95.008589 78.285182 51.914989 98.945359 51.576000 45.723274 70.496904 49.232565 27.500305 49.546966 84.402011 64.702658 50.242228 51.811208 9.050880 32.665332 34.825881 13.232482 33.629616 66.952082 26.618515 1.916347 49.415242 55.572047 40.551860 27.797316 53.353404 83.265726 64.962112 10.8579