<VTKFile type="ImageData" byte_order="LittleEndian"> 
 	<ImageData WholeExtent="0 9 0 8 0 7" Origin="0 0 0" Spacing="1.000000 1.000000 1.000000">
	 <Piece Extent="0 9 0 8 0 7">
	<PointData Scalars="T">
	 <DataArray type="Float32" Name="Scalar" format="ascii">
0.000000 0.000000 0.000000 0.000000 0.000000 0.000000 0.000000 0.000000 0.000000 0.000000 
5.000000 5.000000 5.000000 5.000000 5.000000 5.000000 5.000000 5.000000 5.000000 5.000000 
10.000000 10.000000 10.000000 10.000000 10.000000 10.000000 10.000000 10.000000 10.000000 10.000000 
15.000000 15.000000 15.000000 15.000000 15.000000 15.000000 15.000000 15.000000 15.000000 15.000000 
20.000000 20.000000 20.000000 20.000000 20.000000 20.000000 20.000000 20.000000 20.000000 20.000000 
25.000000 25.000000 25.000000 25.000000 25.000000 25.000000 25.000000 25.000000 25.000000 25.000000 
30.000000 30.000000 30.000000 30.000000 30.000000 30.000000 30.000000 30.000000 30.000000 30.000000 
35.000000 35.000000 35.000000 35.000000 35.000000 35.000000 35.000000 35.000000 35.000000 35.000000 
40.000000 40.000000 40.000000 40.000000 40.000000 40.000000 40.000000 40.000000 40.000000 40.000000 

5.000000 5.000000 5.000000 5.000000 5.000000 5.000000 5.000000 5.000000 5.000000 5.000000 
10.000000 10.000000 10.000000 10.000000 10.000000 10.000000 10.000000 10.000000 10.000000 10.000000 
15.000000 15.000000 15.000000 15.000000 15.000000 15.000000 15.000000 15.000000 15.000000 15.000000 
20.000000 20.000000 20.000000 20.000000 20.000000 20.000000 20.000000 20.000000 20.000000 20.000000 
25.000000 25.000000 25.000000 25.000000 25.000000 25.000000 25.000000 25.000000 25.000000 25.000000 
30.000000 30.000000 30.000000 30.000000 30.000000 30.000000 30.000000 30.000000 30.000000 30.000000 
35.000000 35.000000 35.000000 35.000000 35.000000 35.000000 35.000000 35.000000 35.000000 35.000000 
40.000000 40.000000 40.000000 40.000000 40.000000 40.000000 40.000000 40.000000 40.000000 40.000000 
45.000000 45.000000 45.000000 45.000000 45.000000 45.000000 45.000000 45.000000 45.000000 45.000000 

10.000000 10.000000 10.000000 10.000000 10.000000 10.000000 10.000000 10.000000 10.000000 10.000000 
15.000000 15.000000 15.000000 15.000000 15.000000 15.000000 15.000000 15.000000 15.000000 15.000000 
20.000000 20.000000 20.000000 20.000000 20.000000 20.000000 20.000000 20.000000 20.000000 20.000000 
25.000000 25.000000 25.000000 25.000000 25.000000 25.000000 25.000000 25.000000 25.000000 25.000000 
30.000000 30.000000 30.000000 30.000000 30.000000 30.000000 30.000000 30.000000 30.000000 30.000000 
35.000000 35.000000 35.000000 35.000000 35.000000 35.000000 35.000000 35.000000 35.000000 35.000000 
40.000000 40.000000 40.000000 40.000000 40.000000 40.000000 40.000000 40.000000 40.000000 40.000000 
45.000000 45.000000 45.000000 45.000000 45.000000 45.000000 45.000000 45.000000 45.000000 45.000000 
50.000000 50.000000 50.000000 50.000000 50.000000 50.000000 50.000000 50.000000 50.000000 50.000000 

15.000000 15.000000 15.000000 15.000000 15.000000 15.000000 15.000000 15.000000 15.000000 15.000000 
20.000000 20.000000 20.000000 20.000000 20.000000 20.000000 20.000000 20.000000 20.000000 20.000000 
25.000000 25.000000 25.000000 25.000000 25.000000 25.000000 25.000000 25.000000 25.000000 25.000000 
30.000000 30.000000 30.000000 30.000000 30.000000 30.000000 30.000000 30.000000 30.000000 30.000000 
35.000000 35.000000 35.000000 35.000000 35.000000 35.000000 35.000000 35.000000 35.000000 35.000000 
40.000000 40.000000 40.000000 40.000000 40.000000 40.000000 40.000000 40.000000 40.000000 40.000000 
45.000000 45.000000 45.000000 45.000000 45.000000 45.000000 45.000000 45.000000 45.000000 45.000000 
50.000000 50.000000 50.000000 50.000000 50.000000 50.000000 50.000000 50.000000 50.000000 50.000000 
55.000000 55.000000 55.000000 55.000000 55.000000 55.000000 55.000000 55.000000 55.000000 55.000000 

20.000000 20.000000 20.000000 20.000000 20.000000 20.000000 20.000000 20.000000 20.000000 20.000000 
25.000000 25.000000 25.000000 25.000000 25.000000 25.000000 25.000000 25.000000 25.000000 25.000000 
30.000000 30.000000 30.000000 30.000000 30.000000 30.000000 30.000000 30.000000 30.000000 30.000000 
35.000000 35.000000 35.000000 35.000000 35.000000 35.000000 35.000000 35.000000 35.000000 35.000000 
40.000000 40.000000 40.000000 40.000000 40.000000 40.000000 40.000000 40.000000 40.000000 40.000000 
45.000000 45.000000 45.000000 45.000000 45.000000 45.000000 45.000000 45.000000 45.000000 45.000000 
50.000000 50.000000 50.000000 50.000000 50.000000 50.000000 50.000000 50.000000 50.000000 50.000000 
55.000000 55.000000 55.000000 55.000000 55.000000 55.000000 55.000000 55.000000 55.000000 55.000000 
60.000000 60.000000 60.000000 60.000000 60.000000 60.000000 60.000000 60.000000 60.000000 60.000000 

25.000000 25.000000 25.000000 25.000000 25.000000 25.000000 25.000000 25.000000 25.000000 25.000000 
30.000000 30.000000 30.000000 30.000000 30.000000 30.000000 30.000000 30.000000 30.000000 30.000000 
35.000000 35.000000 35.000000 35.000000 35.000000 35.000000 35.000000 35.000000 35.000000 35.000000 
40.000000 40.000000 40.000000 40.000000 40.000000 40.000000 40.000000 40.000000 40.000000 40.000000 
45.000000 45.000000 45.000000 45.000000 45.000000 45.000000 45.000000 45.000000 45.000000 45.000000 
50.000000 50.000000 50.000000 50.000000 50.000000 50.000000 50.000000 50.000000 50.000000 50.000000 
55.000000 55.000000 55.000000 55.000000 55.000000 55.000000 55.000000 55.000000 55.000000 55.000000 
60.000000 60.000000 60.000000 60.000000 60.000000 60.000000 60.000000 60.000000 60.000000 60.000000 
65.000000 65.000000 65.000000 65.000000 65.000000 65.000000 65.000000 65.000000 65.000000 65.000000 

30.000000 30.000000 30.000000 30.000000 30.000000 30.000000 30.000000 30.000000 30.000000 30.000000 
35.000000 35.000000 35.000000 35.000000 35.000000 35.000000 35.000000 35.000000 35.000000 35.000000 
40.000000 40.000000 40.000000 40.000000 40.000000 40.000000 40.000000 40.000000 40.000000 40.000000 
45.000000 45.000000 45.000000 45.000000 45.000000 45.000000 45.000000 45.000000 45.000000 45.000000 
50.000000 50.000000 50.000000 50.000000 50.000000 50.000000 50.000000 50.000000 50.000000 50.000000 
55.000000 55.000000 55.000000 55.000000 55.000000 55.000000 55.000000 55.000000 55.000000 55.000000 
60.000000 60.000000 60.000000 60.000000 60.000000 60.000000 60.000000 60.000000 60.000000 60.000000 
65.000000 65.000000 65.000000 65.000000 65.000000 65.000000 65.000000 65.000000 65.000000 65.000000 
70.000000 70.000000 70.000000 70.000000 70.000000 70.000000 70.000000 70.000000 70.000000 70.000000 

35.000000 35.000000 35.000000 35.000000 35.000000 35.000000 35.000000 35.000000 35.000000 35.000000 
40.000000 40.000000 40.000000 40.000000 40.000000 40.000000 40.000000 40.000000 40.000000 40.000000 
45.000000 45.000000 45.000000 45.000000 45.000000 45.000000 45.000000 45.000000 45.000000 45.000000 
50.000000 50.000000 50.000000 50.000000 50.000000 50.000000 50.000000 50.000000 50.000000 50.000000 
55.000000 55.000000 55.000000 55.000000 55.000000 55.000000 55.000000 55.000000 55.000000 55.000000 
60.000000 60.000000 60.000000 60.000000 60.000000 60.000000 60.000000 60.000000 60.000000 60.000000 
65.000000 65.000000 65.000000 65.000000 65.000000 65.000000 65.000000 65.000000 65.000000 65.000000 
70.000000 70.000000 70.000000 70.000000 70.000000 70.000000 70.000000 70.000000 70.000000 70.000000 
75.000000 75.000000 75.000000 75.000000 75.000000 75.000000 75.000000 75.000000 75.000000 75.000000 

</DataArray> 
 </PointData> 
 <CellData> </CellData> 
</Piece> 
 </ImageData> 
 </VTKFile>